 Q-Chem 5.4 (devel), Q-Chem, Inc., Pleasanton, CA (2021)
 Q-Chem 5.4.1 for Intel X86 EM64T Linux

User input:
--------------------------------------------------------------
$rem
sym_ignore true
method hf
basis mixed
fde true
PURECART 2
mem_static = 1024
mem_total = 50000
$end

$molecule
-1 1
S    0.70955    -0.28088    -1.53333
C    0.46967    -0.20843    0.13142
N    0.36180    -0.12531    1.30404
Gh  -1.4840500000    -2.4338300000    -1.1651400000
Gh  -1.0121100000    -3.3058300000    -1.4099100000
Gh  -0.8123400000    -1.7394400000    -1.4038700000
Gh  -2.2391500000     1.5097600000    -0.6372100000
Gh  -1.5256800000     2.1457600000    -0.5756400000
Gh  -1.9188100000     0.8217500000     0.0320300000
Gh  -3.4617700000    -2.3334400000    -3.0933300000
Gh  -2.7673300000    -2.5121700000    -2.4228200000
Gh  -4.1024100000    -2.9927500000    -2.7630200000
Gh   3.9845400000    -0.2681400000     0.4681400000
Gh   4.8605200000    -0.6380800000     0.3981900000
Gh   3.8680600000    -0.3193200000     1.4658300000
Gh  -0.2542800000     3.2136400000     0.0129600000
Gh  -0.5989800000     3.5516700000     0.8538000000
Gh   0.6481900000     2.9749000000     0.1576700000
Gh   3.7197500000    -1.7691700000    -3.5476700000
Gh   3.3151400000    -0.9410300000    -3.1451400000
Gh   4.0736000000    -1.3429600000    -4.3751500000
Gh  -3.5648400000    -0.3346600000     2.3116800000
Gh  -4.1172600000    -0.3774900000     3.0837500000
Gh  -3.8083200000     0.5116700000     1.8687800000
Gh   2.5693100000     0.4588900000     3.1042900000
Gh   2.6923400000     1.3784200000     3.2381200000
Gh   1.7468600000     0.2737200000     2.6150700000
Gh   0.6603700000     2.1558300000    -3.3633600000
Gh   0.7133400000     1.5413700000    -2.6540600000
Gh   1.3205300000     2.8282100000    -3.1167700000
Gh   4.0893700000     2.0240000000    -1.2987700000
Gh   3.6448400000     2.6034100000    -0.6181400000
Gh   3.7112000000     1.1745200000    -1.0736300000
Gh  -2.3331300000     1.5777000000    -3.5082300000
Gh  -2.3785600000     1.5054000000    -2.4883400000
Gh  -1.3475700000     1.6248600000    -3.6269300000
Gh  -4.9623000000    -0.7643000000    -0.5974700000
Gh  -4.5400200000    -0.7433800000     0.2773600000
Gh  -4.4109100000    -1.3730000000    -1.1706800000
Gh   1.5761700000    -3.2141300000    -3.9608000000
Gh   1.4736800000    -2.9116700000    -3.0555700000
Gh   2.4751600000    -2.8171500000    -4.0114000000
Gh  -0.9810700000    -2.3944500000     4.2895000000
Gh  -1.6633300000    -1.9917400000     4.8657300000
Gh  -1.0829700000    -2.1369700000     3.3796100000
Gh  -1.8983200000    -2.5847600000     1.6702500000
Gh  -2.3718600000    -1.7145400000     1.7112500000
Gh  -1.3928100000    -2.5490300000     0.8347100000
Gh   2.3182500000     2.7136800000     0.7021400000
Gh   2.6383400000     3.2698000000     1.3988800000
Gh   2.2239000000     1.8273400000     1.0517300000
Gh  -1.0614300000     3.6199400000     2.6296600000
Gh  -1.0886100000     2.8173700000     3.1818700000
Gh  -1.7922300000     4.1687300000     3.0502200000
Gh   2.3761500000     3.1049900000     4.0244000000
Gh   1.4939100000     3.1194400000     4.4981200000
Gh   2.9989000000     3.4027600000     4.7446400000
Gh  -1.7914800000     1.6701500000     4.5368700000
Gh  -2.1532700000     1.8932400000     5.4194500000
Gh  -1.9458300000     0.7188600000     4.4589700000
Gh  -0.5021100000    -4.7634200000    -1.7154700000
Gh  -0.3369100000    -5.3384100000    -0.9637300000
Gh   0.0303700000    -5.2633600000    -2.3854500000
$end

$fde
import_vmat true
debug true
$end

$basis
S 1
S   6   1.00
  2.1917100000D+04  1.8692408490D-03
  3.3014900000D+03  1.4230306460D-02
  7.5414600000D+02  6.9696231660D-02
  2.1271100000D+02  2.3848710830D-01
  6.7989600000D+01  4.8330721950D-01
  2.3051500000D+01  3.3807415360D-01
SP   6   1.00
  4.2373500000D+02  -2.3767704990D-03  4.0610099820D-03
  1.0071000000D+02  -3.1693006650D-02  3.0681299860D-02
  3.2159900000D+01  -1.1331702380D-01  1.3045199940D-01
  1.1807900000D+01  5.6090011770D-02  3.2720499850D-01
  4.6311000000D+00  5.9225512430D-01  4.5285099800D-01
  1.8702500000D+00  4.5500609550D-01  2.5604199890D-01
SP   3   1.00
  2.6158400000D+00  -2.5037311420D-01  -1.4510489550D-02
  9.2216700000D-01  6.6956763100D-02  3.1026277650D-01
  3.4128700000D-01  1.0545062690D+00  7.5448245650D-01
SP   1   1.00
  1.1716700000D-01  1.0000000000D+00  1.0000000000D+00
SP   1   1.00
  4.0500000000D-02  1.0000000000D+00  1.0000000000D+00
D   1   1.00
  6.5000000000D-01  1.0000000000D+00
****
C 2
S   6   1.00
  3.0475248800D+03  1.8347371320D-03
  4.5736951800D+02  1.4037322810D-02
  1.0394868500D+02  6.8842622260D-02
  2.9210155300D+01  2.3218444320D-01
  9.2866629600D+00  4.6794134840D-01
  3.1639269600D+00  3.6231198530D-01
SP   3   1.00
  7.8682723500D+00  -1.1933241980D-01  6.8999066590D-02
  1.8812885400D+00  -1.6085415170D-01  3.1642396100D-01
  5.4424925800D-01  1.1434564380D+00  7.4430829090D-01
SP   1   1.00
  1.6871447820D-01  1.0000000000D+00  1.0000000000D+00
SP   1   1.00
  4.3800000000D-02  1.0000000000D+00  1.0000000000D+00
D   1   1.00
  8.0000000000D-01  1.0000000000D+00
****
N 3
S   6   1.00
  4.1735114600D+03  1.8347721600D-03
  6.2745791100D+02  1.3994627000D-02
  1.4290209300D+02  6.8586551810D-02
  4.0234329300D+01  2.3224087300D-01
  1.2820212900D+01  4.6906994810D-01
  4.3904370100D+00  3.6045519910D-01
SP   3   1.00
  1.1626361860D+01  -1.1496118170D-01  6.7579743880D-02
  2.7162798070D+00  -1.6911747860D-01  3.2390729590D-01
  7.7221839660D-01  1.1458519470D+00  7.4089513980D-01
SP   1   1.00
  2.1203149750D-01  1.0000000000D+00  1.0000000000D+00
SP   1   1.00
  6.3900000000D-02  1.0000000000D+00  1.0000000000D+00
D   1   1.00
  8.0000000000D-01  1.0000000000D+00
****
O 4
SP   1   1.00
  8.4500000000D-02  1.0000000000D+00  1.0000000000D+00
****
H 5
S   1   1.00
  1.6127775880D-01  1.0000000000D+00
****
H 6
S   1   1.00
  1.6127775880D-01  1.0000000000D+00
****
O 7
SP   1   1.00
  8.4500000000D-02  1.0000000000D+00  1.0000000000D+00
****
H 8
S   1   1.00
  1.6127775880D-01  1.0000000000D+00
****
H 9
S   1   1.00
  1.6127775880D-01  1.0000000000D+00
****
O 10
SP   1   1.00
  8.4500000000D-02  1.0000000000D+00  1.0000000000D+00
****
H 11
S   1   1.00
  1.6127775880D-01  1.0000000000D+00
****
H 12
S   1   1.00
  1.6127775880D-01  1.0000000000D+00
****
O 13
SP   1   1.00
  8.4500000000D-02  1.0000000000D+00  1.0000000000D+00
****
H 14
S   1   1.00
  1.6127775880D-01  1.0000000000D+00
****
H 15
S   1   1.00
  1.6127775880D-01  1.0000000000D+00
****
O 16
SP   1   1.00
  8.4500000000D-02  1.0000000000D+00  1.0000000000D+00
****
H 17
S   1   1.00
  1.6127775880D-01  1.0000000000D+00
****
H 18
S   1   1.00
  1.6127775880D-01  1.0000000000D+00
****
O 19
SP   1   1.00
  8.4500000000D-02  1.0000000000D+00  1.0000000000D+00
****
H 20
S   1   1.00
  1.6127775880D-01  1.0000000000D+00
****
H 21
S   1   1.00
  1.6127775880D-01  1.0000000000D+00
****
O 22
SP   1   1.00
  8.4500000000D-02  1.0000000000D+00  1.0000000000D+00
****
H 23
S   1   1.00
  1.6127775880D-01  1.0000000000D+00
****
H 24
S   1   1.00
  1.6127775880D-01  1.0000000000D+00
****
O 25
SP   1   1.00
  8.4500000000D-02  1.0000000000D+00  1.0000000000D+00
****
H 26
S   1   1.00
  1.6127775880D-01  1.0000000000D+00
****
H 27
S   1   1.00
  1.6127775880D-01  1.0000000000D+00
****
O 28
SP   1   1.00
  8.4500000000D-02  1.0000000000D+00  1.0000000000D+00
****
H 29
S   1   1.00
  1.6127775880D-01  1.0000000000D+00
****
H 30
S   1   1.00
  1.6127775880D-01  1.0000000000D+00
****
O 31
SP   1   1.00
  8.4500000000D-02  1.0000000000D+00  1.0000000000D+00
****
H 32
S   1   1.00
  1.6127775880D-01  1.0000000000D+00
****
H 33
S   1   1.00
  1.6127775880D-01  1.0000000000D+00
****
O 34
SP   1   1.00
  8.4500000000D-02  1.0000000000D+00  1.0000000000D+00
****
H 35
S   1   1.00
  1.6127775880D-01  1.0000000000D+00
****
H 36
S   1   1.00
  1.6127775880D-01  1.0000000000D+00
****
O 37
SP   1   1.00
  8.4500000000D-02  1.0000000000D+00  1.0000000000D+00
****
H 38
S   1   1.00
  1.6127775880D-01  1.0000000000D+00
****
H 39
S   1   1.00
  1.6127775880D-01  1.0000000000D+00
****
O 40
SP   1   1.00
  8.4500000000D-02  1.0000000000D+00  1.0000000000D+00
****
H 41
S   1   1.00
  1.6127775880D-01  1.0000000000D+00
****

   11    -489.7400546990      3.83E-06 Convergence criterion met
 Total energy in the final basis set = -489.74005470
 Total job time:  5.27s(wall), 14.70s(cpu)
        *  Thank you very much for using Q-Chem.  Have a nice day.  *

User input: 2 of 2

                  Welcome to Q-Chem
     A Quantum Leap Into The Future Of Chemistry

 Q-Chem 5.4 (devel), Q-Chem, Inc., Pleasanton, CA (2021)

 E. Epifanovsky,  A. T. B. Gilbert,  Xintian Feng,  Joonho Lee,  Yuezhi Mao,
 N. Mardirossian,  P. Pokhilko,  A. White,  M. Wormit,  M. P. Coons,
 A. L. Dempwolff,  Zhengting Gan,  D. Hait,  P. R. Horn,  L. D. Jacobson,
 I. Kaliman,  J. Kussmann,  A. W. Lange,  Ka Un Lao,  D. S. Levine,  Jie Liu,
 S. C. McKenzie,  A. F. Morrison,  K. Nanda,  F. Plasser,  D. R. Rehn,
 M. L. Vidal,  Zhi-Qiang You,  Ying Zhu,  B. Alam,  B. Albrecht,
 A. Aldossary,  E. Alguire,  J. H. Andersen,  D. Barton,  K. Begam,  A. Behn,
 Y. A. Bernard,  E. J. Berquist,  H. Burton,  A. Carreras,  K. Carter-Fenk,
 R. Chakraborty,  A. D. Chien,  K. D. Closser,  V. Cofer-Shabica,
 S. Dasgupta,  Jia Deng,  M. de Wergifosse,  M. Diedenhofen,  Hainam Do,
 S. Ehlert,  Po-Tung Fang,  S. Fatehi,  Qingguo Feng,  T. Friedhoff,
 J. Gayvert,  Qinghui Ge,  G. Gidofalvi,  M. Goldey,  J. Gomes,
 C. Gonzalez-Espinoza,  S. Gulania,  A. Gunina,  M. W. D. Hanson-Heine,
 P. H. P. Harbach,  A. W. Hauser,  M. F. Herbst,  M. Hernandez Vera,
 M. Hodecker,  Z. C. Holden,  S. Houck,  Xunkun Huang,  Kerwin Hui,
 B. C. Huynh,  M. Ivanov,  Hyunjun Ji,  Hanjie Jiang,  B. Kaduk,  S. Kaehler,
 K. Khistyaev,  Jaehoon Kim,  P. Klunzinger,  Z. Koczor-Benda,
 Joong Hoon Koh,  D. Kosenkov,  L. Koulias,  T. Kowalczyk,  C. M. Krauter,
 K. Kue,  A. Kunitsa,  T. Kus,  A. Landau,  K. V. Lawler,  D. Lefrancois,
 S. Lehtola,  Rain Li,  Yi-Pei Li,  Jiashu Liang,  M. Liebenthal,
 Hung-Hsuan Lin,  You-Sheng Lin,  Fenglai Liu,  Kuan-Yu Liu,
 M. Loipersberger,  A. Luenser,  A. Manjanath,  P. Manohar,  E. Mansoor,
 S. F. Manzer,  Shan-Ping Mao,  A. V. Marenich,  T. Markovich,  S. Mason,
 S. A. Maurer,  P. F. McLaughlin,  M. F. S. J. Menger,  J.-M. Mewes,
 S. A. Mewes,  P. Morgante,  J. W. Mullinax,  K. J. Oosterbaan,  G. Paran,
 Alexander C. Paul,  Suranjan K. Paul,  F. Pavosevic,  Zheng Pei,  S. Prager,
 E. I. Proynov,  E. Ramos,  B. Rana,  A. E. Rask,  A. Rettig,  R. M. Richard,
 F. Rob,  E. Rossomme,  T. Scheele,  M. Scheurer,  M. Schneider,
 N. Sergueev,  S. M. Sharada,  W. Skomorowski,  D. W. Small,  C. J. Stein,
 Yu-Chuan Su,  E. J. Sundstrom,  Zhen Tao,  J. Thirman,  T. Tsuchimochi,
 N. M. Tubman,  S. P. Veccham,  O. Vydrov,  J. Wenzel,  J. Witte,  A. Yamada,
 Kun Yao,  S. Yeganeh,  S. R. Yost,  A. Zech,  Igor Ying Zhang,  Xing Zhang,
 Yu Zhang,  D. Zuev,  A. Aspuru-Guzik,  A. T. Bell,  N. A. Besley,
 K. B. Bravaya,  B. R. Brooks,  D. Casanova,  Jeng-Da Chai,  S. Coriani,
 C. J. Cramer,  A. E. DePrince, III,  R. A. DiStasio Jr.,  A. Dreuw,
 B. D. Dunietz,  T. R. Furlani,  W. A. Goddard III,  S. Grimme,
 S. Hammes-Schiffer,  T. Head-Gordon,  W. J. Hehre,  Chao-Ping Hsu,
 T.-C. Jagau,  Yousung Jung,  A. Klamt,  Jing Kong,  D. S. Lambrecht,
 WanZhen Liang,  N. J. Mayhall,  C. W. McCurdy,  J. B. Neaton,
 C. Ochsenfeld,  J. A. Parkhill,  R. Peverati,  V. A. Rassolov,  Yihan Shao,
 L. V. Slipchenko,  T. Stauch,  R. P. Steele,  J. E. Subotnik,
 A. J. W. Thom,  A. Tkatchenko,  D. G. Truhlar,  T. Van Voorhis,
 T. A. Wesolowski,  K. B. Whaley,  H. L. Woodcock III,  P. M. Zimmerman,
 S. Faraji,  P. M. W. Gill,  M. Head-Gordon,  J. M. Herbert,  A. I. Krylov

 Additional authors for Version 5.4.1:
 S. Kotaru,  Shaozhi Li,  Xiangyuan Li,  F. Matz,  A. Molle,  Haisheng Ren,
 Yingli Su,  Hung-Yi Tsai,  C. Utku,  Fang Wang

 Contributors to earlier versions of Q-Chem not listed above:
 R. D. Adamson,  B. Austin,  R. Baer,  J. Baker,  G. J. O. Beran,
 K. Brandhorst,  S. T. Brown,  E. F. C. Byrd,  A. K. Chakraborty,
 G. K. L. Chan,  Chun-Min Chang,  Yunqing Chen,  C.-L. Cheng,
 Siu Hung Chien,  D. M. Chipman,  D. L. Crittenden,  H. Dachsel,
 R. J. Doerksen,  A. D. Dutoi,  R. G. Edgar,  J. Fosso-Tande,
 L. Fusti-Molnar,  D. Ghosh,  A. Ghysels,  A. Golubeva-Zadorozhnaya,
 J. Gonthier,  M. S. Gordon,  S. R. Gwaltney,  G. Hawkins,  J. E. Herr,
 A. Heyden,  S. Hirata,  E. G. Hohenstein,  G. Kedziora,  F. J. Keil,
 C. Kelley,  Jihan Kim,  R. A. King,  R. Z. Khaliullin,  P. P. Korambath,
 W. Kurlancheek,  A. Laurent,  A. M. Lee,  M. S. Lee,  S. V. Levchenko,
 Ching Yeh Lin,  D. Liotard,  E. Livshits,  R. C. Lochan,  I. Lotan,
 L. A. Martinez-Martinez,  P. E. Maslen,  N. Nair,  D. P. O'Neill,
 D. Neuhauser,  E. Neuscamman,  C. M. Oana,  R. Olivares-Amaya,  R. Olson,
 T. M. Perrine,  B. Peters,  P. A. Pieniazek,  A. Prociuk,  Y. M. Rhee,
 J. Ritchie,  M. A. Rohrdanz,  E. Rosta,  N. J. Russ,  H. F. Schaefer III,
 M. W. Schmidt,  N. E. Schultz,  S. Sharma,  N. Shenvi,  C. D. Sherrill,
 A. C. Simmonett,  A. Sodt,  T. Stein,  D. Stuck,  K. S. Thanthiriwatte,
 V. Vanovschi,  L. Vogt,  Tao Wang,  A. Warshel,  M. A. Watson,
 C. F. Williams,  Q. Wu,  X. Xu,  Jun Yang,  W. Zhang,  Yan Zhao

 Please cite Q-Chem as follows:
 Y. Shao et al., Mol. Phys. 113, 184-215 (2015)
 DOI: 10.1080/00268976.2014.952696

 Q-Chem 5.4.1 for Intel X86 EM64T Linux

 Parts of Q-Chem use Armadillo 9.800.1 (Horizon Scraper).
 http://arma.sourceforge.net/

 Q-Chem begins on Thu May  1 23:31:48 2025

 Host: cpu298.baobab
0

     Scratch files written to /srv/beegfs/scratch/users/f/fum/qchem2014058//
 Processing $rem in /home/share/wesolowski/qc5.aug2021.FDE/config/preferences:
 Processing $rem in /home/fum/.qchemrc:
 Symmetry disabled for mixed basis and EFP jobs.

 Checking the input file for inconsistencies... 	...done.

--------------------------------------------------------------
User input:
--------------------------------------------------------------

$rem
sym_ignore = true
method = adc(2)
scf_guess = read
fde_read_pot = true
ee_states = 1
basis = mixed
PURECART 2
mem_static = 1024
mem_total = 50000
adc_davidson_maxiter = 900
adc_print = 3
adc_prop_es = true
gen_scfman = false
molden_format = true
fde_export_density = true
$end

$molecule
-1 1
S    0.70955    -0.28088    -1.53333
C    0.46967    -0.20843    0.13142
N    0.36180    -0.12531    1.30404
Gh  -1.4840500000    -2.4338300000    -1.1651400000
Gh  -1.0121100000    -3.3058300000    -1.4099100000
Gh  -0.8123400000    -1.7394400000    -1.4038700000
Gh  -2.2391500000     1.5097600000    -0.6372100000
Gh  -1.5256800000     2.1457600000    -0.5756400000
Gh  -1.9188100000     0.8217500000     0.0320300000
Gh  -3.4617700000    -2.3334400000    -3.0933300000
Gh  -2.7673300000    -2.5121700000    -2.4228200000
Gh  -4.1024100000    -2.9927500000    -2.7630200000
Gh   3.9845400000    -0.2681400000     0.4681400000
Gh   4.8605200000    -0.6380800000     0.3981900000
Gh   3.8680600000    -0.3193200000     1.4658300000
Gh  -0.2542800000     3.2136400000     0.0129600000
Gh  -0.5989800000     3.5516700000     0.8538000000
Gh   0.6481900000     2.9749000000     0.1576700000
Gh   3.7197500000    -1.7691700000    -3.5476700000
Gh   3.3151400000    -0.9410300000    -3.1451400000
Gh   4.0736000000    -1.3429600000    -4.3751500000
Gh  -3.5648400000    -0.3346600000     2.3116800000
Gh  -4.1172600000    -0.3774900000     3.0837500000
Gh  -3.8083200000     0.5116700000     1.8687800000
Gh   2.5693100000     0.4588900000     3.1042900000
Gh   2.6923400000     1.3784200000     3.2381200000
Gh   1.7468600000     0.2737200000     2.6150700000
Gh   0.6603700000     2.1558300000    -3.3633600000
Gh   0.7133400000     1.5413700000    -2.6540600000
Gh   1.3205300000     2.8282100000    -3.1167700000
Gh   4.0893700000     2.0240000000    -1.2987700000
Gh   3.6448400000     2.6034100000    -0.6181400000
Gh   3.7112000000     1.1745200000    -1.0736300000
Gh  -2.3331300000     1.5777000000    -3.5082300000
Gh  -2.3785600000     1.5054000000    -2.4883400000
Gh  -1.3475700000     1.6248600000    -3.6269300000
Gh  -4.9623000000    -0.7643000000    -0.5974700000
Gh  -4.5400200000    -0.7433800000     0.2773600000
Gh  -4.4109100000    -1.3730000000    -1.1706800000
Gh   1.5761700000    -3.2141300000    -3.9608000000
Gh   1.4736800000    -2.9116700000    -3.0555700000
Gh   2.4751600000    -2.8171500000    -4.0114000000
Gh  -0.9810700000    -2.3944500000     4.2895000000
Gh  -1.6633300000    -1.9917400000     4.8657300000
Gh  -1.0829700000    -2.1369700000     3.3796100000
Gh  -1.8983200000    -2.5847600000     1.6702500000
Gh  -2.3718600000    -1.7145400000     1.7112500000
Gh  -1.3928100000    -2.5490300000     0.8347100000
Gh   2.3182500000     2.7136800000     0.7021400000
Gh   2.6383400000     3.2698000000     1.3988800000
Gh   2.2239000000     1.8273400000     1.0517300000
Gh  -1.0614300000     3.6199400000     2.6296600000
Gh  -1.0886100000     2.8173700000     3.1818700000
Gh  -1.7922300000     4.1687300000     3.0502200000
Gh   2.3761500000     3.1049900000     4.0244000000
Gh   1.4939100000     3.1194400000     4.4981200000
Gh   2.9989000000     3.4027600000     4.7446400000
Gh  -1.7914800000     1.6701500000     4.5368700000
Gh  -2.1532700000     1.8932400000     5.4194500000
Gh  -1.9458300000     0.7188600000     4.4589700000
Gh  -0.5021100000    -4.7634200000    -1.7154700000
Gh  -0.3369100000    -5.3384100000    -0.9637300000
Gh   0.0303700000    -5.2633600000    -2.3854500000
$end

$basis
S 1
S   6   1.00
  2.1917100000D+04  1.8692408490D-03
  3.3014900000D+03  1.4230306460D-02
  7.5414600000D+02  6.9696231660D-02
  2.1271100000D+02  2.3848710830D-01
  6.7989600000D+01  4.8330721950D-01
  2.3051500000D+01  3.3807415360D-01
SP   6   1.00
  4.2373500000D+02  -2.3767704990D-03  4.0610099820D-03
  1.0071000000D+02  -3.1693006650D-02  3.0681299860D-02
  3.2159900000D+01  -1.1331702380D-01  1.3045199940D-01
  1.1807900000D+01  5.6090011770D-02  3.2720499850D-01
  4.6311000000D+00  5.9225512430D-01  4.5285099800D-01
  1.8702500000D+00  4.5500609550D-01  2.5604199890D-01
SP   3   1.00
  2.6158400000D+00  -2.5037311420D-01  -1.4510489550D-02
  9.2216700000D-01  6.6956763100D-02  3.1026277650D-01
  3.4128700000D-01  1.0545062690D+00  7.5448245650D-01
SP   1   1.00
  1.1716700000D-01  1.0000000000D+00  1.0000000000D+00
SP   1   1.00
  4.0500000000D-02  1.0000000000D+00  1.0000000000D+00
D   1   1.00
  6.5000000000D-01  1.0000000000D+00
****
C 2
S   6   1.00
  3.0475248800D+03  1.8347371320D-03
  4.5736951800D+02  1.4037322810D-02
  1.0394868500D+02  6.8842622260D-02
  2.9210155300D+01  2.3218444320D-01
  9.2866629600D+00  4.6794134840D-01
  3.1639269600D+00  3.6231198530D-01
SP   3   1.00
  7.8682723500D+00  -1.1933241980D-01  6.8999066590D-02
  1.8812885400D+00  -1.6085415170D-01  3.1642396100D-01
  5.4424925800D-01  1.1434564380D+00  7.4430829090D-01
SP   1   1.00
  1.6871447820D-01  1.0000000000D+00  1.0000000000D+00
SP   1   1.00
  4.3800000000D-02  1.0000000000D+00  1.0000000000D+00
D   1   1.00
  8.0000000000D-01  1.0000000000D+00
****
N 3
S   6   1.00
  4.1735114600D+03  1.8347721600D-03
  6.2745791100D+02  1.3994627000D-02
  1.4290209300D+02  6.8586551810D-02
  4.0234329300D+01  2.3224087300D-01
  1.2820212900D+01  4.6906994810D-01
  4.3904370100D+00  3.6045519910D-01
SP   3   1.00
  1.1626361860D+01  -1.1496118170D-01  6.7579743880D-02
  2.7162798070D+00  -1.6911747860D-01  3.2390729590D-01
  7.7221839660D-01  1.1458519470D+00  7.4089513980D-01
SP   1   1.00
  2.1203149750D-01  1.0000000000D+00  1.0000000000D+00
SP   1   1.00
  6.3900000000D-02  1.0000000000D+00  1.0000000000D+00
D   1   1.00
  8.0000000000D-01  1.0000000000D+00
****
O 4
SP   1   1.00
  8.4500000000D-02  1.0000000000D+00  1.0000000000D+00
****
H 5
S   1   1.00
  1.6127775880D-01  1.0000000000D+00
****
H 6
S   1   1.00
  1.6127775880D-01  1.0000000000D+00
****
O 7
SP   1   1.00
  8.4500000000D-02  1.0000000000D+00  1.0000000000D+00
****
H 8
S   1   1.00
  1.6127775880D-01  1.0000000000D+00
****
H 9
S   1   1.00
  1.6127775880D-01  1.0000000000D+00
****
O 10
SP   1   1.00
  8.4500000000D-02  1.0000000000D+00  1.0000000000D+00
****
H 11
S   1   1.00
  1.6127775880D-01  1.0000000000D+00
****
H 12
S   1   1.00
  1.6127775880D-01  1.0000000000D+00
****
O 13
SP   1   1.00
  8.4500000000D-02  1.0000000000D+00  1.0000000000D+00
****
H 14
S   1   1.00
  1.6127775880D-01  1.0000000000D+00
****
H 15
S   1   1.00
  1.6127775880D-01  1.0000000000D+00
****
O 16
SP   1   1.00
  8.4500000000D-02  1.0000000000D+00  1.0000000000D+00
****
H 17
S   1   1.00
  1.6127775880D-01  1.0000000000D+00
****
H 18
S   1   1.00
  1.6127775880D-01  1.0000000000D+00
****
O 19
SP   1   1.00
  8.4500000000D-02  1.0000000000D+00  1.0000000000D+00
****
H 20
S   1   1.00
  1.6127775880D-01  1.0000000000D+00
****
H 21
S   1   1.00
  1.6127775880D-01  1.0000000000D+00
****
O 22
SP   1   1.00
  8.4500000000D-02  1.0000000000D+00  1.0000000000D+00
****
H 23
S   1   1.00
  1.6127775880D-01  1.0000000000D+00
****
H 24
S   1   1.00
  1.6127775880D-01  1.0000000000D+00
****
O 25
SP   1   1.00
  8.4500000000D-02  1.0000000000D+00  1.0000000000D+00
****
H 26
S   1   1.00
  1.6127775880D-01  1.0000000000D+00
****
H 27
S   1   1.00
  1.6127775880D-01  1.0000000000D+00
****
O 28
SP   1   1.00
  8.4500000000D-02  1.0000000000D+00  1.0000000000D+00
****
H 29
S   1   1.00
  1.6127775880D-01  1.0000000000D+00
****
H 30
S   1   1.00
  1.6127775880D-01  1.0000000000D+00
****
O 31
SP   1   1.00
  8.4500000000D-02  1.0000000000D+00  1.0000000000D+00
****
H 32
S   1   1.00
  1.6127775880D-01  1.0000000000D+00
****
H 33
S   1   1.00
  1.6127775880D-01  1.0000000000D+00
****
O 34
SP   1   1.00
  8.4500000000D-02  1.0000000000D+00  1.0000000000D+00
****
H 35
S   1   1.00
  1.6127775880D-01  1.0000000000D+00
****
H 36
S   1   1.00
  1.6127775880D-01  1.0000000000D+00
****
O 37
SP   1   1.00
  8.4500000000D-02  1.0000000000D+00  1.0000000000D+00
****
H 38
S   1   1.00
  1.6127775880D-01  1.0000000000D+00
****
H 39
S   1   1.00
  1.6127775880D-01  1.0000000000D+00
****
O 40
SP   1   1.00
  8.4500000000D-02  1.0000000000D+00  1.0000000000D+00
****

             Standard Nuclear Orientation (Angstroms)
    I     Atom           X                Y                Z
 ----------------------------------------------------------------
    1      S       0.7095500000    -0.2808800000    -1.5333300000
    2      C       0.4696700000    -0.2084300000     0.1314200000
    3      N       0.3618000000    -0.1253100000     1.3040400000
    4      GH     -1.4840500000    -2.4338300000    -1.1651400000
    5      GH     -1.0121100000    -3.3058300000    -1.4099100000
    6      GH     -0.8123400000    -1.7394400000    -1.4038700000
    7      GH     -2.2391500000     1.5097600000    -0.6372100000
    8      GH     -1.5256800000     2.1457600000    -0.5756400000
    9      GH     -1.9188100000     0.8217500000     0.0320300000
   10      GH     -3.4617700000    -2.3334400000    -3.0933300000
   11      GH     -2.7673300000    -2.5121700000    -2.4228200000
   12      GH     -4.1024100000    -2.9927500000    -2.7630200000
   13      GH      3.9845400000    -0.2681400000     0.4681400000
   14      GH      4.8605200000    -0.6380800000     0.3981900000
   15      GH      3.8680600000    -0.3193200000     1.4658300000
   16      GH     -0.2542800000     3.2136400000     0.0129600000
   17      GH     -0.5989800000     3.5516700000     0.8538000000
   18      GH      0.6481900000     2.9749000000     0.1576700000
   19      GH      3.7197500000    -1.7691700000    -3.5476700000
   20      GH      3.3151400000    -0.9410300000    -3.1451400000
   21      GH      4.0736000000    -1.3429600000    -4.3751500000
   22      GH     -3.5648400000    -0.3346600000     2.3116800000
   23      GH     -4.1172600000    -0.3774900000     3.0837500000
   24      GH     -3.8083200000     0.5116700000     1.8687800000
   25      GH      2.5693100000     0.4588900000     3.1042900000
   26      GH      2.6923400000     1.3784200000     3.2381200000
   27      GH      1.7468600000     0.2737200000     2.6150700000
   28      GH      0.6603700000     2.1558300000    -3.3633600000
   29      GH      0.7133400000     1.5413700000    -2.6540600000
   30      GH      1.3205300000     2.8282100000    -3.1167700000
   31      GH      4.0893700000     2.0240000000    -1.2987700000
   32      GH      3.6448400000     2.6034100000    -0.6181400000
   33      GH      3.7112000000     1.1745200000    -1.0736300000
   34      GH     -2.3331300000     1.5777000000    -3.5082300000
   35      GH     -2.3785600000     1.5054000000    -2.4883400000
   36      GH     -1.3475700000     1.6248600000    -3.6269300000
   37      GH     -4.9623000000    -0.7643000000    -0.5974700000
   38      GH     -4.5400200000    -0.7433800000     0.2773600000
   39      GH     -4.4109100000    -1.3730000000    -1.1706800000
   40      GH      1.5761700000    -3.2141300000    -3.9608000000
   41      GH      1.4736800000    -2.9116700000    -3.0555700000
   42      GH      2.4751600000    -2.8171500000    -4.0114000000
   43      GH     -0.9810700000    -2.3944500000     4.2895000000
   44      GH     -1.6633300000    -1.9917400000     4.8657300000
   45      GH     -1.0829700000    -2.1369700000     3.3796100000
   46      GH     -1.8983200000    -2.5847600000     1.6702500000
   47      GH     -2.3718600000    -1.7145400000     1.7112500000
   48      GH     -1.3928100000    -2.5490300000     0.8347100000
   49      GH      2.3182500000     2.7136800000     0.7021400000
   50      GH      2.6383400000     3.2698000000     1.3988800000
   51      GH      2.2239000000     1.8273400000     1.0517300000
   52      GH     -1.0614300000     3.6199400000     2.6296600000
   53      GH     -1.0886100000     2.8173700000     3.1818700000
   54      GH     -1.7922300000     4.1687300000     3.0502200000
   55      GH      2.3761500000     3.1049900000     4.0244000000
   56      GH      1.4939100000     3.1194400000     4.4981200000
   57      GH      2.9989000000     3.4027600000     4.7446400000
   58      GH     -1.7914800000     1.6701500000     4.5368700000
   59      GH     -2.1532700000     1.8932400000     5.4194500000
   60      GH     -1.9458300000     0.7188600000     4.4589700000
   61      GH     -0.5021100000    -4.7634200000    -1.7154700000
   62      GH     -0.3369100000    -5.3384100000    -0.9637300000
   63      GH      0.0303700000    -5.2633600000    -2.3854500000
 ----------------------------------------------------------------

    7    -489.7400292039      8.36E-09 Convergence criterion met
 Total energy in the final basis set = -489.74002920
  Excited state 1 (singlet, A)                                     [converged]
  Term symbol:  2 (1) A                                     R^2 =  9.65348e-07
  Excitation energy:                                               5.060314 eV

                    Orbital Energies (a.u.)
 --------------------------------------------------------------

 Alpha MOs
 -- Occupied --
-91.8538 -15.4906 -11.2243  -8.8435  -6.5309  -6.5271  -6.5268  -1.1084
 -0.8789  -0.5105  -0.4284  -0.3901  -0.3849  -0.2338  -0.2229

          Ground-State Mulliken Net Atomic Charges

     Atom                 Charge (a.u.)
  ----------------------------------------
      1 S                    -0.984863
      2 C                     0.594949
      3 N                    -0.696845
      4 GH                    0.061818
      5 GH                    0.000445
      6 GH                   -0.038573
      7 GH                    0.020551
      8 GH                   -0.001712
      9 GH                   -0.002866
     10 GH                   -0.000474
     11 GH                   -0.000165
     12 GH                    0.000002
     13 GH                    0.007432
     14 GH                    0.000075
     15 GH                   -0.000371
     16 GH                    0.004356
     17 GH                   -0.000025
     18 GH                   -0.000421
     19 GH                    0.003108
     20 GH                   -0.001743
     21 GH                    0.000116
     22 GH                   -0.000343
     23 GH                    0.000007
     24 GH                    0.000086
     25 GH                    0.004200
     26 GH                    0.000464
     27 GH                   -0.005019
     28 GH                    0.045388
     29 GH                   -0.015534
     30 GH                   -0.000010
     31 GH                    0.003330
     32 GH                   -0.000008
     33 GH                   -0.000942
     34 GH                    0.005864
     35 GH                   -0.001185
     36 GH                   -0.001401
     37 GH                   -0.000105
     38 GH                    0.000011
     39 GH                    0.000028
     40 GH                    0.003780
     41 GH                   -0.001600
     42 GH                   -0.000045
     43 GH                   -0.000146
     44 GH                    0.000030
     45 GH                   -0.000463
     46 GH                    0.010016
     47 GH                   -0.001331
     48 GH                   -0.002158
     49 GH                   -0.003525
     50 GH                    0.000251
     51 GH                   -0.002299
     52 GH                    0.000016
     53 GH                   -0.000130
     54 GH                    0.000004
     55 GH                   -0.000461
     56 GH                    0.000024
     57 GH                   -0.000002
     58 GH                    0.000228
     59 GH                    0.000005
     60 GH                   -0.000055
     61 GH                   -0.001925
     62 GH                    0.000062
     63 GH                    0.000102
  ----------------------------------------
  Sum of atomic charges =    -1.000000

                    Cartesian Multipole Moments
 -----------------------------------------------------------------
    Charge (ESU x 10^10)
                -4.8032
    Dipole Moment (Debye)
         X      -2.8302      Y       0.9120      Z       0.4486
       Tot       3.0072
    Quadrupole Moments (Debye-Ang)
        XX     -30.1614     XY       0.5674     YY     -28.6548
        XZ       1.8206     YZ      -1.3507     ZZ     -39.8645

 Total job time:  82.18s(wall), 1113.63s(cpu)
        *  Thank you very much for using Q-Chem.  Have a nice day.  *
